LAMMPS data file via write_data.

510 atoms
2 atom types

0. 19.45 xlo xhi
0. 19.45 ylo yhi
0. 19.45 zlo zhi

Masses

1 106.4
2 1.0079

Atoms # atomic

1 1 0. 0. 0.
2 1 1.945 1.945 0.
101 1 0. 0. 3.89
102 1 1.945 1.945 3.89
201 1 0. 0. 7.78
202 1 1.945 1.945 7.78
21 1 0. 3.89 0.
22 1 1.945 5.835 0.
121 1 0. 3.89 3.89
122 1 1.945 5.835 3.89
221 1 0. 3.89 7.78
222 1 1.945 5.835 7.78
41 1 0. 7.78 0.
42 1 1.945 9.725 0.
141 1 0. 7.78 3.89
142 1 1.945 9.725 3.89
241 1 0. 7.78 7.78
242 1 1.945 9.725 7.78
61 1 0. 11.67 0.
62 1 1.945 13.615 0.
161 1 0. 11.67 3.89
162 1 1.945 13.615 3.89
261 1 0. 11.67 7.78
262 1 1.945 13.615 7.78
81 1 0. 15.56 0.
82 1 1.945 17.505 0.
181 1 0. 15.56 3.89
182 1 1.945 17.505 3.89
281 1 0. 15.56 7.78
282 1 1.945 17.505 7.78
5 1 3.89 0. 0.
6 1 5.835 1.945 0.
105 1 3.89 0. 3.89
106 1 5.835 1.945 3.89
205 1 3.89 0. 7.78
206 1 5.835 1.945 7.78
25 1 3.89 3.89 0.
26 1 5.835 5.835 0.
125 1 3.89 3.89 3.89
126 1 5.835 5.835 3.89
225 1 3.89 3.89 7.78
226 1 5.835 5.835 7.78
45 1 3.89 7.78 0.
46 1 5.835 9.725 0.
145 1 3.89 7.78 3.89
146 1 5.835 9.725 3.89
245 1 3.89 7.78 7.78
246 1 5.835 9.725 7.78
65 1 3.89 11.67 0.
66 1 5.835 13.615 0.
165 1 3.89 11.67 3.89
166 1 5.835 13.615 3.89
265 1 3.89 11.67 7.78
266 1 5.835 13.615 7.78
85 1 3.89 15.56 0.
86 1 5.835 17.505 0.
185 1 3.89 15.56 3.89
186 1 5.835 17.505 3.89
285 1 3.89 15.56 7.78
286 1 5.835 17.505 7.78
9 1 7.78 0. 0.
10 1 9.725 1.945 0.
109 1 7.78 0. 3.89
110 1 9.725 1.945 3.89
209 1 7.78 0. 7.78
210 1 9.725 1.945 7.78
29 1 7.78 3.89 0.
30 1 9.725 5.835 0.
129 1 7.78 3.89 3.89
130 1 9.725 5.835 3.89
229 1 7.78 3.89 7.78
230 1 9.725 5.835 7.78
49 1 7.78 7.78 0.
50 1 9.725 9.725 0.
149 1 7.78 7.78 3.89
150 1 9.725 9.725 3.89
249 1 7.78 7.78 7.78
250 1 9.725 9.725 7.78
69 1 7.78 11.67 0.
70 1 9.725 13.615 0.
169 1 7.78 11.67 3.89
170 1 9.725 13.615 3.89
269 1 7.78 11.67 7.78
270 1 9.725 13.615 7.78
89 1 7.78 15.56 0.
90 1 9.725 17.505 0.
189 1 7.78 15.56 3.89
190 1 9.725 17.505 3.89
289 1 7.78 15.56 7.78
290 1 9.725 17.505 7.78
13 1 11.67 0. 0.
14 1 13.615 1.945 0.
113 1 11.67 0. 3.89
114 1 13.615 1.945 3.89
213 1 11.67 0. 7.78
214 1 13.615 1.945 7.78
33 1 11.67 3.89 0.
34 1 13.615 5.835 0.
133 1 11.67 3.89 3.89
134 1 13.615 5.835 3.89
233 1 11.67 3.89 7.78
234 1 13.615 5.835 7.78
53 1 11.67 7.78 0.
54 1 13.615 9.725 0.
153 1 11.67 7.78 3.89
154 1 13.615 9.725 3.89
253 1 11.67 7.78 7.78
254 1 13.615 9.725 7.78
73 1 11.67 11.67 0.
74 1 13.615 13.615 0.
173 1 11.67 11.67 3.89
174 1 13.615 13.615 3.89
273 1 11.67 11.67 7.78
274 1 13.615 13.615 7.78
93 1 11.67 15.56 0.
94 1 13.615 17.505 0.
193 1 11.67 15.56 3.89
194 1 13.615 17.505 3.89
293 1 11.67 15.56 7.78
294 1 13.615 17.505 7.78
17 1 15.56 0. 0.
18 1 17.505 1.945 0.
117 1 15.56 0. 3.89
118 1 17.505 1.945 3.89
217 1 15.56 0. 7.78
218 1 17.505 1.945 7.78
37 1 15.56 3.89 0.
38 1 17.505 5.835 0.
137 1 15.56 3.89 3.89
138 1 17.505 5.835 3.89
237 1 15.56 3.89 7.78
238 1 17.505 5.835 7.78
57 1 15.56 7.78 0.
58 1 17.505 9.725 0.
157 1 15.56 7.78 3.89
158 1 17.505 9.725 3.89
257 1 15.56 7.78 7.78
258 1 17.505 9.725 7.78
77 1 15.56 11.67 0.
78 1 17.505 13.615 0.
177 1 15.56 11.67 3.89
178 1 17.505 13.615 3.89
277 1 15.56 11.67 7.78
278 1 17.505 13.615 7.78
97 1 15.56 15.56 0.
98 1 17.505 17.505 0.
197 1 15.56 15.56 3.89
198 1 17.505 17.505 3.89
297 1 15.56 15.56 7.78
298 1 17.505 17.505 7.78
3 1 1.945 0. 1.945
4 1 0. 1.945 1.945
103 1 1.945 0. 5.835
104 1 0. 1.945 5.835
23 1 1.945 3.89 1.945
24 1 0. 5.835 1.945
123 1 1.945 3.89 5.835
124 1 0. 5.835 5.835
43 1 1.945 7.78 1.945
44 1 0. 9.725 1.945
143 1 1.945 7.78 5.835
144 1 0. 9.725 5.835
63 1 1.945 11.67 1.945
64 1 0. 13.615 1.945
163 1 1.945 11.67 5.835
164 1 0. 13.615 5.835
83 1 1.945 15.56 1.945
84 1 0. 17.505 1.945
183 1 1.945 15.56 5.835
184 1 0. 17.505 5.835
7 1 5.835 0. 1.945
8 1 3.89 1.945 1.945
107 1 5.835 0. 5.835
108 1 3.89 1.945 5.835
27 1 5.835 3.89 1.945
28 1 3.89 5.835 1.945
127 1 5.835 3.89 5.835
128 1 3.89 5.835 5.835
47 1 5.835 7.78 1.945
48 1 3.89 9.725 1.945
147 1 5.835 7.78 5.835
148 1 3.89 9.725 5.835
67 1 5.835 11.67 1.945
68 1 3.89 13.615 1.945
167 1 5.835 11.67 5.835
168 1 3.89 13.615 5.835
87 1 5.835 15.56 1.945
88 1 3.89 17.505 1.945
187 1 5.835 15.56 5.835
188 1 3.89 17.505 5.835
11 1 9.725 0. 1.945
12 1 7.78 1.945 1.945
111 1 9.725 0. 5.835
112 1 7.78 1.945 5.835
31 1 9.725 3.89 1.945
32 1 7.78 5.835 1.945
131 1 9.725 3.89 5.835
132 1 7.78 5.835 5.835
51 1 9.725 7.78 1.945
52 1 7.78 9.725 1.945
151 1 9.725 7.78 5.835
152 1 7.78 9.725 5.835
71 1 9.725 11.67 1.945
72 1 7.78 13.615 1.945
171 1 9.725 11.67 5.835
172 1 7.78 13.615 5.835
91 1 9.725 15.56 1.945
92 1 7.78 17.505 1.945
191 1 9.725 15.56 5.835
192 1 7.78 17.505 5.835
15 1 13.615 0. 1.945
16 1 11.67 1.945 1.945
115 1 13.615 0. 5.835
116 1 11.67 1.945 5.835
35 1 13.615 3.89 1.945
36 1 11.67 5.835 1.945
135 1 13.615 3.89 5.835
136 1 11.67 5.835 5.835
55 1 13.615 7.78 1.945
56 1 11.67 9.725 1.945
155 1 13.615 7.78 5.835
156 1 11.67 9.725 5.835
75 1 13.615 11.67 1.945
76 1 11.67 13.615 1.945
175 1 13.615 11.67 5.835
176 1 11.67 13.615 5.835
95 1 13.615 15.56 1.945
96 1 11.67 17.505 1.945
195 1 13.615 15.56 5.835
196 1 11.67 17.505 5.835
19 1 17.505 0. 1.945
20 1 15.56 1.945 1.945
119 1 17.505 0. 5.835
120 1 15.56 1.945 5.835
39 1 17.505 3.89 1.945
40 1 15.56 5.835 1.945
139 1 17.505 3.89 5.835
140 1 15.56 5.835 5.835
59 1 17.505 7.78 1.945
60 1 15.56 9.725 1.945
159 1 17.505 7.78 5.835
160 1 15.56 9.725 5.835
79 1 17.505 11.67 1.945
80 1 15.56 13.615 1.945
179 1 17.505 11.67 5.835
180 1 15.56 13.615 5.835
99 1 17.505 15.56 1.945
100 1 15.56 17.505 1.945
199 1 17.505 15.56 5.835
200 1 15.56 17.505 5.835
301 1 0. 0. 11.67
302 1 1.945 1.945 11.67
401 1 0. 0. 15.56
402 1 1.945 1.945 15.56
321 1 0. 3.89 11.67
322 1 1.945 5.835 11.67
421 1 0. 3.89 15.56
422 1 1.945 5.835 15.56
341 1 0. 7.78 11.67
342 1 1.945 9.725 11.67
441 1 0. 7.78 15.56
442 1 1.945 9.725 15.56
361 1 0. 11.67 11.67
362 1 1.945 13.615 11.67
461 1 0. 11.67 15.56
462 1 1.945 13.615 15.56
381 1 0. 15.56 11.67
382 1 1.945 17.505 11.67
481 1 0. 15.56 15.56
482 1 1.945 17.505 15.56
305 1 3.89 0. 11.67
306 1 5.835 1.945 11.67
405 1 3.89 0. 15.56
406 1 5.835 1.945 15.56
325 1 3.89 3.89 11.67
326 1 5.835 5.835 11.67
425 1 3.89 3.89 15.56
426 1 5.835 5.835 15.56
345 1 3.89 7.78 11.67
346 1 5.835 9.725 11.67
445 1 3.89 7.78 15.56
446 1 5.835 9.725 15.56
365 1 3.89 11.67 11.67
366 1 5.835 13.615 11.67
465 1 3.89 11.67 15.56
466 1 5.835 13.615 15.56
385 1 3.89 15.56 11.67
386 1 5.835 17.505 11.67
485 1 3.89 15.56 15.56
486 1 5.835 17.505 15.56
309 1 7.78 0. 11.67
310 1 9.725 1.945 11.67
409 1 7.78 0. 15.56
410 1 9.725 1.945 15.56
329 1 7.78 3.89 11.67
330 1 9.725 5.835 11.67
429 1 7.78 3.89 15.56
430 1 9.725 5.835 15.56
349 1 7.78 7.78 11.67
350 1 9.725 9.725 11.67
449 1 7.78 7.78 15.56
450 1 9.725 9.725 15.56
369 1 7.78 11.67 11.67
370 1 9.725 13.615 11.67
469 1 7.78 11.67 15.56
470 1 9.725 13.615 15.56
389 1 7.78 15.56 11.67
390 1 9.725 17.505 11.67
489 1 7.78 15.56 15.56
490 1 9.725 17.505 15.56
313 1 11.67 0. 11.67
314 1 13.615 1.945 11.67
413 1 11.67 0. 15.56
414 1 13.615 1.945 15.56
333 1 11.67 3.89 11.67
334 1 13.615 5.835 11.67
433 1 11.67 3.89 15.56
434 1 13.615 5.835 15.56
353 1 11.67 7.78 11.67
354 1 13.615 9.725 11.67
453 1 11.67 7.78 15.56
454 1 13.615 9.725 15.56
373 1 11.67 11.67 11.67
374 1 13.615 13.615 11.67
473 1 11.67 11.67 15.56
474 1 13.615 13.615 15.56
393 1 11.67 15.56 11.67
394 1 13.615 17.505 11.67
493 1 11.67 15.56 15.56
494 1 13.615 17.505 15.56
317 1 15.56 0. 11.67
318 1 17.505 1.945 11.67
417 1 15.56 0. 15.56
418 1 17.505 1.945 15.56
337 1 15.56 3.89 11.67
338 1 17.505 5.835 11.67
437 1 15.56 3.89 15.56
438 1 17.505 5.835 15.56
357 1 15.56 7.78 11.67
358 1 17.505 9.725 11.67
457 1 15.56 7.78 15.56
458 1 17.505 9.725 15.56
377 1 15.56 11.67 11.67
378 1 17.505 13.615 11.67
477 1 15.56 11.67 15.56
478 1 17.505 13.615 15.56
397 1 15.56 15.56 11.67
398 1 17.505 17.505 11.67
497 1 15.56 15.56 15.56
498 1 17.505 17.505 15.56
203 1 1.945 0. 9.725
204 1 0. 1.945 9.725
303 1 1.945 0. 13.615
304 1 0. 1.945 13.615
403 1 1.945 0. 17.505
404 1 0. 1.945 17.505
223 1 1.945 3.89 9.725
224 1 0. 5.835 9.725
323 1 1.945 3.89 13.615
324 1 0. 5.835 13.615
423 1 1.945 3.89 17.505
424 1 0. 5.835 17.505
243 1 1.945 7.78 9.725
244 1 0. 9.725 9.725
343 1 1.945 7.78 13.615
344 1 0. 9.725 13.615
443 1 1.945 7.78 17.505
444 1 0. 9.725 17.505
263 1 1.945 11.67 9.725
264 1 0. 13.615 9.725
363 1 1.945 11.67 13.615
364 1 0. 13.615 13.615
463 1 1.945 11.67 17.505
464 1 0. 13.615 17.505
283 1 1.945 15.56 9.725
284 1 0. 17.505 9.725
383 1 1.945 15.56 13.615
384 1 0. 17.505 13.615
483 1 1.945 15.56 17.505
484 1 0. 17.505 17.505
207 1 5.835 0. 9.725
208 1 3.89 1.945 9.725
307 1 5.835 0. 13.615
308 1 3.89 1.945 13.615
407 1 5.835 0. 17.505
408 1 3.89 1.945 17.505
227 1 5.835 3.89 9.725
228 1 3.89 5.835 9.725
327 1 5.835 3.89 13.615
328 1 3.89 5.835 13.615
427 1 5.835 3.89 17.505
428 1 3.89 5.835 17.505
247 1 5.835 7.78 9.725
248 1 3.89 9.725 9.725
347 1 5.835 7.78 13.615
348 1 3.89 9.725 13.615
447 1 5.835 7.78 17.505
448 1 3.89 9.725 17.505
267 1 5.835 11.67 9.725
268 1 3.89 13.615 9.725
367 1 5.835 11.67 13.615
368 1 3.89 13.615 13.615
467 1 5.835 11.67 17.505
468 1 3.89 13.615 17.505
287 1 5.835 15.56 9.725
288 1 3.89 17.505 9.725
387 1 5.835 15.56 13.615
388 1 3.89 17.505 13.615
487 1 5.835 15.56 17.505
488 1 3.89 17.505 17.505
211 1 9.725 0. 9.725
212 1 7.78 1.945 9.725
311 1 9.725 0. 13.615
312 1 7.78 1.945 13.615
411 1 9.725 0. 17.505
412 1 7.78 1.945 17.505
231 1 9.725 3.89 9.725
232 1 7.78 5.835 9.725
331 1 9.725 3.89 13.615
332 1 7.78 5.835 13.615
431 1 9.725 3.89 17.505
432 1 7.78 5.835 17.505
251 1 9.725 7.78 9.725
252 1 7.78 9.725 9.725
351 1 9.725 7.78 13.615
352 1 7.78 9.725 13.615
451 1 9.725 7.78 17.505
452 1 7.78 9.725 17.505
271 1 9.725 11.67 9.725
272 1 7.78 13.615 9.725
371 1 9.725 11.67 13.615
372 1 7.78 13.615 13.615
471 1 9.725 11.67 17.505
472 1 7.78 13.615 17.505
291 1 9.725 15.56 9.725
292 1 7.78 17.505 9.725
391 1 9.725 15.56 13.615
392 1 7.78 17.505 13.615
491 1 9.725 15.56 17.505
492 1 7.78 17.505 17.505
215 1 13.615 0. 9.725
216 1 11.67 1.945 9.725
315 1 13.615 0. 13.615
316 1 11.67 1.945 13.615
415 1 13.615 0. 17.505
416 1 11.67 1.945 17.505
235 1 13.615 3.89 9.725
236 1 11.67 5.835 9.725
335 1 13.615 3.89 13.615
336 1 11.67 5.835 13.615
435 1 13.615 3.89 17.505
436 1 11.67 5.835 17.505
255 1 13.615 7.78 9.725
256 1 11.67 9.725 9.725
355 1 13.615 7.78 13.615
356 1 11.67 9.725 13.615
455 1 13.615 7.78 17.505
456 1 11.67 9.725 17.505
275 1 13.615 11.67 9.725
276 1 11.67 13.615 9.725
375 1 13.615 11.67 13.615
376 1 11.67 13.615 13.615
475 1 13.615 11.67 17.505
476 1 11.67 13.615 17.505
295 1 13.615 15.56 9.725
296 1 11.67 17.505 9.725
395 1 13.615 15.56 13.615
396 1 11.67 17.505 13.615
495 1 13.615 15.56 17.505
496 1 11.67 17.505 17.505
219 1 17.505 0. 9.725
220 1 15.56 1.945 9.725
319 1 17.505 0. 13.615
320 1 15.56 1.945 13.615
419 1 17.505 0. 17.505
420 1 15.56 1.945 17.505
239 1 17.505 3.89 9.725
240 1 15.56 5.835 9.725
339 1 17.505 3.89 13.615
340 1 15.56 5.835 13.615
439 1 17.505 3.89 17.505
440 1 15.56 5.835 17.505
259 1 17.505 7.78 9.725
260 1 15.56 9.725 9.725
359 1 17.505 7.78 13.615
360 1 15.56 9.725 13.615
459 1 17.505 7.78 17.505
460 1 15.56 9.725 17.505
279 1 17.505 11.67 9.725
280 1 15.56 13.615 9.725
379 1 17.505 11.67 13.615
380 1 15.56 13.615 13.615
479 1 17.505 11.67 17.505
480 1 15.56 13.615 17.505
299 1 17.505 15.56 9.725
300 1 15.56 17.505 9.725
399 1 17.505 15.56 13.615
400 1 15.56 17.505 13.615
499 1 17.505 15.56 17.505
500 1 15.56 17.505 17.505
501 2 17.505 13.615 9.725
502 2 17.505 1.945 13.615
503 2 9.725 9.725 17.505
504 2 17.505 9.725 1.945
505 2 13.615 13.615 13.615
506 2 5.835 1.945 9.725
507 2 9.725 9.725 13.615
508 2 1.945 5.835 17.505
509 2 5.835 13.615 5.835
510 2 5.835 1.945 13.615
